<?xml version="1.0" encoding="UTF-8"?>

<!-- generated on 10/26/19 14:27:23 by Eclipse SUMO GUI Version 1.3.1
<configuration xmlns:xsi="http://www.w3.org/2001/XMLSchema-instance" xsi:noNamespaceSchemaLocation="http://sumo.dlr.de/xsd/sumoConfiguration.xsd">

    <input>
        <net-file value="./net.net.xml"/>
        <route-files value="./input_routes.rou.xml"/>
    </input>

    <output>
        <netstate-dump value="./out.xml"/>
    </output>

    <time>
        <begin value="0"/>
        <end value="1030"/>
        <step-length value="1"/>
    </time>

    <processing>
        <lateral-resolution value="0.64"/>
        <time-to-teleport value="-1"/>
    </processing>

    <report>
        <xml-validation value="never"/>
        <duration-log.disable value="true"/>
        <no-step-log value="true"/>
    </report>

    <traci_server>
        <remote-port value="54204"/>
    </traci_server>

    <gui_only>
        <gui-settings-file value="./cross.settings.xml"/>
        <tracker-interval value="1"/>
    </gui_only>

</configuration>
-->

<netstate xmlns:xsi="http://www.w3.org/2001/XMLSchema-instance" xsi:noNamespaceSchemaLocation="http://sumo.dlr.de/xsd/netstate_file.xsd">
    <timestep time="0.00">
        <edge id="1fi">
            <lane id="1fi_0">
                <vehicle id="arC.0" pos="5.10" speed="0.00" posLat="0.00" speedLat="0.00"/>
            </lane>
            <lane id="1fi_1"/>
            <lane id="1fi_2"/>
        </edge>
        <edge id="2fi">
            <lane id="2fi_0">
                <vehicle id="hoC.0" pos="5.10" speed="0.00" posLat="0.00" speedLat="0.00"/>
            </lane>
            <lane id="2fi_1"/>
            <lane id="2fi_2"/>
        </edge>
        <edge id="3fi">
            <lane id="3fi_0">
                <vehicle id="alC.0" pos="5.10" speed="0.00" posLat="0.00" speedLat="0.00"/>
            </lane>
            <lane id="3fi_1"/>
            <lane id="3fi_2"/>
        </edge>
    </timestep>
    <timestep time="1.00">
        <edge id="1fi">
            <lane id="1fi_0">
                <vehicle id="arC.0" pos="6.10" speed="1.00" posLat="0.00" speedLat="0.00"/>
            </lane>
            <lane id="1fi_1"/>
            <lane id="1fi_2"/>
        </edge>
        <edge id="2fi">
            <lane id="2fi_0">
                <vehicle id="hoC.0" pos="6.10" speed="1.00" posLat="0.00" speedLat="0.00"/>
            </lane>
            <lane id="2fi_1"/>
            <lane id="2fi_2"/>
        </edge>
        <edge id="3fi">
            <lane id="3fi_0">
                <vehicle id="alC.0" pos="6.10" speed="1.00" posLat="0.00" speedLat="0.00"/>
            </lane>
            <lane id="3fi_1"/>
            <lane id="3fi_2"/>
        </edge>
    </timestep>
    <timestep time="2.00">
        <edge id="1fi">
            <lane id="1fi_0">
                <vehicle id="arC.0" pos="8.10" speed="2.00" posLat="0.00" speedLat="0.00"/>
            </lane>
            <lane id="1fi_1"/>
            <lane id="1fi_2"/>
        </edge>
        <edge id="2fi">
            <lane id="2fi_0">
                <vehicle id="hoC.0" pos="8.10" speed="2.00" posLat="0.00" speedLat="0.00"/>
            </lane>
            <lane id="2fi_1"/>
            <lane id="2fi_2"/>
        </edge>
        <edge id="3fi">
            <lane id="3fi_0">
                <vehicle id="alC.0" pos="8.10" speed="2.00" posLat="0.00" speedLat="0.00"/>
            </lane>
            <lane id="3fi_1"/>
            <lane id="3fi_2"/>
        </edge>
    </timestep>
    <timestep time="3.00">
        <edge id="1fi">
            <lane id="1fi_0">
                <vehicle id="arC.0" pos="11.10" speed="3.00" posLat="0.00" speedLat="0.00"/>
            </lane>
            <lane id="1fi_1"/>
            <lane id="1fi_2"/>
        </edge>
        <edge id="2fi">
            <lane id="2fi_0">
                <vehicle id="hoC.0" pos="11.10" speed="3.00" posLat="0.00" speedLat="0.00"/>
            </lane>
            <lane id="2fi_1"/>
            <lane id="2fi_2"/>
        </edge>
        <edge id="3fi">
            <lane id="3fi_0">
                <vehicle id="alC.0" pos="11.10" speed="3.00" posLat="0.00" speedLat="0.00"/>
            </lane>
            <lane id="3fi_1"/>
            <lane id="3fi_2"/>
        </edge>
    </timestep>
    <timestep time="4.00">
        <edge id="1fi">
            <lane id="1fi_0">
                <vehicle id="arC.0" pos="15.10" speed="4.00" posLat="1.00" speedLat="1.00"/>
            </lane>
            <lane id="1fi_1"/>
            <lane id="1fi_2"/>
        </edge>
        <edge id="2fi">
            <lane id="2fi_0">
                <vehicle id="hoC.0" pos="15.10" speed="4.00" posLat="0.00" speedLat="0.00"/>
            </lane>
            <lane id="2fi_1"/>
            <lane id="2fi_2"/>
        </edge>
        <edge id="3fi">
            <lane id="3fi_0">
                <vehicle id="veC.0" pos="5.10" speed="0.00" posLat="0.00" speedLat="0.00"/>
                <vehicle id="alC.0" pos="15.10" speed="4.00" posLat="0.00" speedLat="0.00"/>
            </lane>
            <lane id="3fi_1"/>
            <lane id="3fi_2"/>
        </edge>
    </timestep>
    <timestep time="5.00">
        <edge id="1fi">
            <lane id="1fi_0"/>
            <lane id="1fi_1">
                <vehicle id="arC.0" pos="20.10" speed="5.00" posLat="-1.20" speedLat="1.00"/>
            </lane>
            <lane id="1fi_2"/>
        </edge>
        <edge id="2fi">
            <lane id="2fi_0">
                <vehicle id="hoC.0" pos="20.10" speed="5.00" posLat="0.00" speedLat="0.00"/>
            </lane>
            <lane id="2fi_1"/>
            <lane id="2fi_2"/>
        </edge>
        <edge id="3fi">
            <lane id="3fi_0">
                <vehicle id="veC.0" pos="6.10" speed="1.00" posLat="0.00" speedLat="0.00"/>
                <vehicle id="alC.0" pos="20.10" speed="5.00" posLat="0.00" speedLat="0.00"/>
            </lane>
            <lane id="3fi_1"/>
            <lane id="3fi_2"/>
        </edge>
    </timestep>
    <timestep time="6.00">
        <edge id="1fi">
            <lane id="1fi_0"/>
            <lane id="1fi_1">
                <vehicle id="arC.0" pos="26.10" speed="6.00" posLat="-0.20" speedLat="1.00"/>
            </lane>
            <lane id="1fi_2"/>
        </edge>
        <edge id="2fi">
            <lane id="2fi_0">
                <vehicle id="hoC.0" pos="26.10" speed="6.00" posLat="0.00" speedLat="0.00"/>
            </lane>
            <lane id="2fi_1"/>
            <lane id="2fi_2"/>
        </edge>
        <edge id="3fi">
            <lane id="3fi_0">
                <vehicle id="veC.0" pos="8.10" speed="2.00" posLat="0.00" speedLat="0.00"/>
                <vehicle id="alC.0" pos="26.10" speed="6.00" posLat="0.00" speedLat="0.00"/>
            </lane>
            <lane id="3fi_1"/>
            <lane id="3fi_2"/>
        </edge>
    </timestep>
    <timestep time="7.00">
        <edge id="1fi">
            <lane id="1fi_0"/>
            <lane id="1fi_1">
                <vehicle id="arC.0" pos="33.10" speed="7.00" posLat="0.80" speedLat="1.00"/>
            </lane>
            <lane id="1fi_2"/>
        </edge>
        <edge id="2fi">
            <lane id="2fi_0">
                <vehicle id="hoC.0" pos="33.10" speed="7.00" posLat="0.00" speedLat="0.00"/>
            </lane>
            <lane id="2fi_1"/>
            <lane id="2fi_2"/>
        </edge>
        <edge id="3fi">
            <lane id="3fi_0">
                <vehicle id="veC.0" pos="11.10" speed="3.00" posLat="0.00" speedLat="0.00"/>
                <vehicle id="alC.0" pos="33.10" speed="7.00" posLat="0.00" speedLat="0.00"/>
            </lane>
            <lane id="3fi_1"/>
            <lane id="3fi_2"/>
        </edge>
    </timestep>
    <timestep time="8.00">
        <edge id="1fi">
            <lane id="1fi_0"/>
            <lane id="1fi_1"/>
            <lane id="1fi_2">
                <vehicle id="arC.0" pos="41.10" speed="8.00" posLat="-1.40" speedLat="1.00"/>
            </lane>
        </edge>
        <edge id="2fi">
            <lane id="2fi_0">
                <vehicle id="hoC.0" pos="41.10" speed="8.00" posLat="1.00" speedLat="1.00"/>
            </lane>
            <lane id="2fi_1"/>
            <lane id="2fi_2"/>
        </edge>
        <edge id="3fi">
            <lane id="3fi_0">
                <vehicle id="veC.0" pos="15.10" speed="4.00" posLat="0.00" speedLat="0.00"/>
                <vehicle id="alC.0" pos="41.10" speed="8.00" posLat="0.00" speedLat="0.00"/>
            </lane>
            <lane id="3fi_1"/>
            <lane id="3fi_2"/>
        </edge>
    </timestep>
    <timestep time="9.00">
        <edge id="1fi">
            <lane id="1fi_0"/>
            <lane id="1fi_1"/>
            <lane id="1fi_2">
                <vehicle id="arC.0" pos="50.10" speed="9.00" posLat="-0.40" speedLat="1.00"/>
            </lane>
        </edge>
        <edge id="2fi">
            <lane id="2fi_0"/>
            <lane id="2fi_1">
                <vehicle id="hoC.0" pos="50.10" speed="9.00" posLat="-1.20" speedLat="1.00"/>
            </lane>
            <lane id="2fi_2"/>
        </edge>
        <edge id="3fi">
            <lane id="3fi_0">
                <vehicle id="veC.0" pos="20.10" speed="5.00" posLat="0.00" speedLat="0.00"/>
                <vehicle id="alC.0" pos="50.10" speed="9.00" posLat="0.00" speedLat="0.00"/>
            </lane>
            <lane id="3fi_1"/>
            <lane id="3fi_2"/>
        </edge>
    </timestep>
    <timestep time="10.00">
        <edge id="1fi">
            <lane id="1fi_0"/>
            <lane id="1fi_1"/>
            <lane id="1fi_2">
                <vehicle id="arC.0" pos="60.10" speed="10.00" posLat="0.00" speedLat="0.40"/>
            </lane>
        </edge>
        <edge id="2fi">
            <lane id="2fi_0"/>
            <lane id="2fi_1">
                <vehicle id="hoC.0" pos="60.10" speed="10.00" posLat="-0.20" speedLat="1.00"/>
            </lane>
            <lane id="2fi_2"/>
        </edge>
        <edge id="3fi">
            <lane id="3fi_0">
                <vehicle id="veC.0" pos="26.10" speed="6.00" posLat="0.00" speedLat="0.00"/>
                <vehicle id="alC.0" pos="60.10" speed="10.00" posLat="0.00" speedLat="0.00"/>
            </lane>
            <lane id="3fi_1"/>
            <lane id="3fi_2"/>
        </edge>
    </timestep>
    <timestep time="11.00">
        <edge id="1fi">
            <lane id="1fi_0"/>
            <lane id="1fi_1"/>
            <lane id="1fi_2">
                <vehicle id="arC.0" pos="70.52" speed="10.42" posLat="0.00" speedLat="0.00"/>
            </lane>
        </edge>
        <edge id="2fi">
            <lane id="2fi_0"/>
            <lane id="2fi_1">
                <vehicle id="hoC.0" pos="71.10" speed="11.00" posLat="0.00" speedLat="0.20"/>
            </lane>
            <lane id="2fi_2"/>
        </edge>
        <edge id="3fi">
            <lane id="3fi_0">
                <vehicle id="veC.0" pos="33.10" speed="7.00" posLat="0.00" speedLat="0.00"/>
                <vehicle id="alC.0" pos="71.10" speed="11.00" posLat="0.00" speedLat="0.00"/>
            </lane>
            <lane id="3fi_1"/>
            <lane id="3fi_2"/>
        </edge>
    </timestep>
    <timestep time="12.00">
        <edge id="1fi">
            <lane id="1fi_0"/>
            <lane id="1fi_1"/>
            <lane id="1fi_2">
                <vehicle id="arC.0" pos="80.95" speed="10.42" posLat="0.00" speedLat="0.00"/>
            </lane>
        </edge>
        <edge id="2fi">
            <lane id="2fi_0"/>
            <lane id="2fi_1">
                <vehicle id="hoC.0" pos="82.33" speed="11.23" posLat="0.00" speedLat="0.00"/>
            </lane>
            <lane id="2fi_2"/>
        </edge>
        <edge id="3fi">
            <lane id="3fi_0">
                <vehicle id="veC.0" pos="41.10" speed="8.00" posLat="1.00" speedLat="1.00"/>
                <vehicle id="alC.0" pos="82.88" speed="11.78" posLat="0.00" speedLat="0.00"/>
            </lane>
            <lane id="3fi_1"/>
            <lane id="3fi_2"/>
        </edge>
    </timestep>
    <timestep time="13.00">
        <edge id="1fi">
            <lane id="1fi_0"/>
            <lane id="1fi_1"/>
            <lane id="1fi_2">
                <vehicle id="arC.0" pos="91.37" speed="10.42" posLat="0.00" speedLat="0.00"/>
            </lane>
        </edge>
        <edge id="2fi">
            <lane id="2fi_0"/>
            <lane id="2fi_1">
                <vehicle id="hoC.0" pos="93.55" speed="11.23" posLat="0.00" speedLat="0.00"/>
            </lane>
            <lane id="2fi_2"/>
        </edge>
        <edge id="3fi">
            <lane id="3fi_0">
                <vehicle id="alC.0" pos="94.65" speed="11.78" posLat="0.00" speedLat="0.00"/>
            </lane>
            <lane id="3fi_1">
                <vehicle id="veC.0" pos="50.10" speed="9.00" posLat="-1.20" speedLat="1.00"/>
            </lane>
            <lane id="3fi_2"/>
        </edge>
    </timestep>
    <timestep time="14.00">
        <edge id="1fi">
            <lane id="1fi_0"/>
            <lane id="1fi_1"/>
            <lane id="1fi_2">
                <vehicle id="arC.0" pos="101.80" speed="10.42" posLat="0.00" speedLat="0.00"/>
            </lane>
        </edge>
        <edge id="2fi">
            <lane id="2fi_0"/>
            <lane id="2fi_1">
                <vehicle id="hoC.0" pos="104.78" speed="11.23" posLat="0.00" speedLat="0.00"/>
            </lane>
            <lane id="2fi_2"/>
        </edge>
        <edge id="3fi">
            <lane id="3fi_0">
                <vehicle id="alC.0" pos="106.43" speed="11.78" posLat="0.00" speedLat="0.00"/>
            </lane>
            <lane id="3fi_1">
                <vehicle id="veC.0" pos="60.10" speed="10.00" posLat="-0.20" speedLat="1.00"/>
            </lane>
            <lane id="3fi_2"/>
        </edge>
    </timestep>
    <timestep time="15.00">
        <edge id="1fi">
            <lane id="1fi_0"/>
            <lane id="1fi_1"/>
            <lane id="1fi_2">
                <vehicle id="arC.0" pos="112.22" speed="10.42" posLat="0.00" speedLat="0.00"/>
            </lane>
        </edge>
        <edge id="2fi">
            <lane id="2fi_0"/>
            <lane id="2fi_1">
                <vehicle id="hoC.0" pos="116.00" speed="11.23" posLat="1.00" speedLat="1.00"/>
            </lane>
            <lane id="2fi_2"/>
        </edge>
        <edge id="3fi">
            <lane id="3fi_0">
                <vehicle id="alC.0" pos="118.21" speed="11.78" posLat="0.00" speedLat="0.00"/>
            </lane>
            <lane id="3fi_1">
                <vehicle id="veC.0" pos="71.10" speed="11.00" posLat="0.00" speedLat="0.20"/>
            </lane>
            <lane id="3fi_2"/>
        </edge>
    </timestep>
    <timestep time="16.00">
        <edge id="1fi">
            <lane id="1fi_0"/>
            <lane id="1fi_1"/>
            <lane id="1fi_2">
                <vehicle id="arC.0" pos="122.65" speed="10.42" posLat="0.00" speedLat="0.00"/>
            </lane>
        </edge>
        <edge id="2fi">
            <lane id="2fi_0"/>
            <lane id="2fi_1"/>
            <lane id="2fi_2">
                <vehicle id="hoC.0" pos="127.23" speed="11.23" posLat="-1.20" speedLat="1.00"/>
            </lane>
        </edge>
        <edge id="3fi">
            <lane id="3fi_0">
                <vehicle id="alC.0" pos="129.98" speed="11.78" posLat="0.00" speedLat="0.00"/>
            </lane>
            <lane id="3fi_1">
                <vehicle id="veC.0" pos="83.10" speed="12.00" posLat="0.00" speedLat="0.00"/>
            </lane>
            <lane id="3fi_2"/>
        </edge>
    </timestep>
    <timestep time="17.00">
        <edge id="1fi">
            <lane id="1fi_0"/>
            <lane id="1fi_1"/>
            <lane id="1fi_2">
                <vehicle id="arC.0" pos="133.07" speed="10.42" posLat="0.00" speedLat="0.00"/>
            </lane>
        </edge>
        <edge id="2fi">
            <lane id="2fi_0"/>
            <lane id="2fi_1"/>
            <lane id="2fi_2">
                <vehicle id="hoC.0" pos="138.45" speed="11.23" posLat="-0.20" speedLat="1.00"/>
            </lane>
        </edge>
        <edge id="3fi">
            <lane id="3fi_0">
                <vehicle id="alC.0" pos="141.76" speed="11.78" posLat="0.00" speedLat="0.00"/>
            </lane>
            <lane id="3fi_1">
                <vehicle id="veC.0" pos="95.13" speed="12.03" posLat="0.00" speedLat="0.00"/>
            </lane>
            <lane id="3fi_2"/>
        </edge>
    </timestep>
    <timestep time="18.00">
        <edge id="1fi">
            <lane id="1fi_0"/>
            <lane id="1fi_1"/>
            <lane id="1fi_2">
                <vehicle id="arC.0" pos="143.50" speed="10.42" posLat="0.00" speedLat="0.00"/>
            </lane>
        </edge>
        <edge id="2si">
            <lane id="2si_0"/>
            <lane id="2si_1"/>
            <lane id="2si_2">
                <vehicle id="hoC.0" pos="3.18" speed="11.23" posLat="0.00" speedLat="0.20"/>
            </lane>
        </edge>
        <edge id="3fi">
            <lane id="3fi_0">
                <vehicle id="alC.0" pos="153.53" speed="11.78" posLat="0.00" speedLat="0.00"/>
            </lane>
            <lane id="3fi_1">
                <vehicle id="veC.0" pos="107.16" speed="12.03" posLat="0.00" speedLat="0.00"/>
            </lane>
            <lane id="3fi_2"/>
        </edge>
    </timestep>
    <timestep time="19.00">
        <edge id="1fi">
            <lane id="1fi_0"/>
            <lane id="1fi_1"/>
            <lane id="1fi_2">
                <vehicle id="arC.0" pos="153.92" speed="10.42" posLat="0.00" speedLat="0.00"/>
            </lane>
        </edge>
        <edge id="2si">
            <lane id="2si_0"/>
            <lane id="2si_1"/>
            <lane id="2si_2">
                <vehicle id="hoC.0" pos="15.40" speed="12.23" posLat="0.00" speedLat="0.00"/>
            </lane>
        </edge>
        <edge id="3fi">
            <lane id="3fi_0"/>
            <lane id="3fi_1">
                <vehicle id="veC.0" pos="119.19" speed="12.03" posLat="1.00" speedLat="1.00"/>
            </lane>
            <lane id="3fi_2"/>
        </edge>
        <edge id="3si">
            <lane id="3si_0">
                <vehicle id="alC.0" pos="5.21" speed="11.78" posLat="0.00" speedLat="0.00"/>
            </lane>
            <lane id="3si_1"/>
            <lane id="3si_2"/>
        </edge>
    </timestep>
    <timestep time="20.00">
        <edge id="1si">
            <lane id="1si_0"/>
            <lane id="1si_1"/>
            <lane id="1si_2">
                <vehicle id="arC.0" pos="4.25" speed="10.42" posLat="0.00" speedLat="0.00"/>
            </lane>
        </edge>
        <edge id="2si">
            <lane id="2si_0"/>
            <lane id="2si_1"/>
            <lane id="2si_2">
                <vehicle id="hoC.0" pos="22.90" speed="7.50" posLat="0.00" speedLat="0.00"/>
            </lane>
        </edge>
        <edge id="3fi">
            <lane id="3fi_0"/>
            <lane id="3fi_1"/>
            <lane id="3fi_2">
                <vehicle id="veC.0" pos="131.21" speed="12.03" posLat="-1.20" speedLat="1.00"/>
            </lane>
        </edge>
        <edge id="3si">
            <lane id="3si_0">
                <vehicle id="alC.0" pos="17.99" speed="12.78" posLat="0.00" speedLat="0.00"/>
            </lane>
            <lane id="3si_1"/>
            <lane id="3si_2"/>
        </edge>
    </timestep>
    <timestep time="21.00">
        <edge id="1si">
            <lane id="1si_0"/>
            <lane id="1si_1"/>
            <lane id="1si_2">
                <vehicle id="arC.0" pos="15.67" speed="11.42" posLat="0.00" speedLat="0.00"/>
            </lane>
        </edge>
        <edge id="2si">
            <lane id="2si_0"/>
            <lane id="2si_1"/>
            <lane id="2si_2">
                <vehicle id="hoC.0" pos="25.40" speed="2.50" posLat="0.00" speedLat="0.00"/>
            </lane>
        </edge>
        <edge id="3fi">
            <lane id="3fi_0"/>
            <lane id="3fi_1"/>
            <lane id="3fi_2">
                <vehicle id="veC.0" pos="143.24" speed="12.03" posLat="-0.20" speedLat="1.00"/>
            </lane>
        </edge>
        <edge id="3si">
            <lane id="3si_0">
                <vehicle id="alC.0" pos="26.40" speed="8.41" posLat="0.00" speedLat="0.00"/>
            </lane>
            <lane id="3si_1"/>
            <lane id="3si_2"/>
        </edge>
    </timestep>
    <timestep time="22.00">
        <edge id=":0_10">
            <lane id=":0_10_0">
                <vehicle id="alC.0" pos="6.90" speed="6.90" posLat="0.00" speedLat="0.00"/>
            </lane>
        </edge>
        <edge id="1si">
            <lane id="1si_0"/>
            <lane id="1si_1"/>
            <lane id="1si_2">
                <vehicle id="arC.0" pos="23.03" speed="7.36" posLat="0.00" speedLat="0.00"/>
            </lane>
        </edge>
        <edge id="2si">
            <lane id="2si_0"/>
            <lane id="2si_1"/>
            <lane id="2si_2">
                <vehicle id="hoC.0" pos="25.40" speed="0.00" posLat="0.00" speedLat="0.00"/>
            </lane>
        </edge>
        <edge id="3fi">
            <lane id="3fi_0"/>
            <lane id="3fi_1"/>
            <lane id="3fi_2">
                <vehicle id="veC.0" pos="155.27" speed="12.03" posLat="0.00" speedLat="0.20"/>
            </lane>
        </edge>
    </timestep>
    <timestep time="23.00">
        <edge id="1si">
            <lane id="1si_0"/>
            <lane id="1si_1"/>
            <lane id="1si_2">
                <vehicle id="arC.0" pos="25.40" speed="2.36" posLat="0.00" speedLat="0.00"/>
            </lane>
        </edge>
        <edge id="2o">
            <lane id="2o_0">
                <vehicle id="alC.0" pos="4.77" speed="6.90" posLat="1.00" speedLat="1.00"/>
            </lane>
            <lane id="2o_1"/>
            <lane id="2o_2"/>
        </edge>
        <edge id="2si">
            <lane id="2si_0"/>
            <lane id="2si_1"/>
            <lane id="2si_2">
                <vehicle id="hoC.0" pos="25.40" speed="0.00" posLat="0.00" speedLat="0.00"/>
            </lane>
        </edge>
        <edge id="3si">
            <lane id="3si_0"/>
            <lane id="3si_1"/>
            <lane id="3si_2">
                <vehicle id="veC.0" pos="7.20" speed="12.03" posLat="0.00" speedLat="0.00"/>
            </lane>
        </edge>
    </timestep>
    <timestep time="24.00">
        <edge id="1si">
            <lane id="1si_0"/>
            <lane id="1si_1"/>
            <lane id="1si_2">
                <vehicle id="arC.0" pos="25.40" speed="0.00" posLat="0.00" speedLat="0.00"/>
            </lane>
        </edge>
        <edge id="2o">
            <lane id="2o_0"/>
            <lane id="2o_1">
                <vehicle id="alC.0" pos="12.67" speed="7.90" posLat="-1.20" speedLat="1.00"/>
            </lane>
            <lane id="2o_2"/>
        </edge>
        <edge id="2si">
            <lane id="2si_0"/>
            <lane id="2si_1"/>
            <lane id="2si_2">
                <vehicle id="hoC.0" pos="25.40" speed="0.00" posLat="0.00" speedLat="0.00"/>
            </lane>
        </edge>
        <edge id="3si">
            <lane id="3si_0"/>
            <lane id="3si_1"/>
            <lane id="3si_2">
                <vehicle id="veC.0" pos="20.23" speed="13.03" posLat="0.00" speedLat="0.00"/>
            </lane>
        </edge>
    </timestep>
    <timestep time="25.00">
        <edge id=":0_11">
            <lane id=":0_11_0"/>
            <lane id=":0_11_1"/>
            <lane id=":0_11_2">
                <vehicle id="veC.0" pos="7.36" speed="13.53" posLat="0.00" speedLat="0.00"/>
            </lane>
        </edge>
        <edge id="1si">
            <lane id="1si_0"/>
            <lane id="1si_1"/>
            <lane id="1si_2">
                <vehicle id="arC.0" pos="25.40" speed="0.00" posLat="0.00" speedLat="0.00"/>
            </lane>
        </edge>
        <edge id="2o">
            <lane id="2o_0"/>
            <lane id="2o_1">
                <vehicle id="alC.0" pos="21.57" speed="8.90" posLat="-0.20" speedLat="1.00"/>
            </lane>
            <lane id="2o_2"/>
        </edge>
        <edge id="2si">
            <lane id="2si_0"/>
            <lane id="2si_1"/>
            <lane id="2si_2">
                <vehicle id="hoC.0" pos="25.40" speed="0.00" posLat="0.00" speedLat="0.00"/>
            </lane>
        </edge>
    </timestep>
    <timestep time="26.00">
        <edge id=":0_11">
            <lane id=":0_11_0"/>
            <lane id=":0_11_1"/>
            <lane id=":0_11_2">
                <vehicle id="veC.0" pos="20.89" speed="13.53" posLat="0.00" speedLat="0.00"/>
            </lane>
        </edge>
        <edge id="1si">
            <lane id="1si_0"/>
            <lane id="1si_1"/>
            <lane id="1si_2">
                <vehicle id="arC.0" pos="25.40" speed="0.00" posLat="0.00" speedLat="0.00"/>
            </lane>
        </edge>
        <edge id="2o">
            <lane id="2o_0"/>
            <lane id="2o_1">
                <vehicle id="alC.0" pos="31.47" speed="9.90" posLat="0.80" speedLat="1.00"/>
            </lane>
            <lane id="2o_2"/>
        </edge>
        <edge id="2si">
            <lane id="2si_0"/>
            <lane id="2si_1"/>
            <lane id="2si_2">
                <vehicle id="hoC.0" pos="25.40" speed="0.00" posLat="0.00" speedLat="0.00"/>
            </lane>
        </edge>
    </timestep>
    <timestep time="27.00">
        <edge id="1si">
            <lane id="1si_0"/>
            <lane id="1si_1"/>
            <lane id="1si_2">
                <vehicle id="arC.0" pos="25.40" speed="0.00" posLat="0.00" speedLat="0.00"/>
            </lane>
        </edge>
        <edge id="2o">
            <lane id="2o_0"/>
            <lane id="2o_1"/>
            <lane id="2o_2">
                <vehicle id="alC.0" pos="42.37" speed="10.90" posLat="-1.40" speedLat="1.00"/>
            </lane>
        </edge>
        <edge id="2si">
            <lane id="2si_0"/>
            <lane id="2si_1"/>
            <lane id="2si_2">
                <vehicle id="hoC.0" pos="25.40" speed="0.00" posLat="-1.00" speedLat="-1.00"/>
            </lane>
        </edge>
        <edge id="4o">
            <lane id="4o_0"/>
            <lane id="4o_1"/>
            <lane id="4o_2">
                <vehicle id="veC.0" pos="5.72" speed="12.03" posLat="0.00" speedLat="0.00"/>
            </lane>
        </edge>
    </timestep>
    <timestep time="28.00">
        <edge id="1si">
            <lane id="1si_0"/>
            <lane id="1si_1"/>
            <lane id="1si_2">
                <vehicle id="arC.0" pos="25.40" speed="0.00" posLat="0.00" speedLat="0.00"/>
            </lane>
        </edge>
        <edge id="2o">
            <lane id="2o_0"/>
            <lane id="2o_1"/>
            <lane id="2o_2">
                <vehicle id="alC.0" pos="54.15" speed="11.78" posLat="-0.40" speedLat="1.00"/>
            </lane>
        </edge>
        <edge id="2si">
            <lane id="2si_0"/>
            <lane id="2si_1">
                <vehicle id="hoC.0" pos="25.40" speed="0.00" posLat="1.20" speedLat="-1.00"/>
            </lane>
            <lane id="2si_2"/>
        </edge>
        <edge id="4o">
            <lane id="4o_0"/>
            <lane id="4o_1"/>
            <lane id="4o_2">
                <vehicle id="veC.0" pos="17.75" speed="12.03" posLat="0.00" speedLat="0.00"/>
            </lane>
        </edge>
    </timestep>
    <timestep time="29.00">
        <edge id="1si">
            <lane id="1si_0"/>
            <lane id="1si_1"/>
            <lane id="1si_2">
                <vehicle id="arC.0" pos="25.40" speed="0.00" posLat="0.00" speedLat="0.00"/>
            </lane>
        </edge>
        <edge id="2o">
            <lane id="2o_0"/>
            <lane id="2o_1"/>
            <lane id="2o_2">
                <vehicle id="alC.0" pos="65.93" speed="11.78" posLat="0.00" speedLat="0.40"/>
            </lane>
        </edge>
        <edge id="2si">
            <lane id="2si_0"/>
            <lane id="2si_1">
                <vehicle id="hoC.0" pos="25.40" speed="0.00" posLat="0.20" speedLat="-1.00"/>
            </lane>
            <lane id="2si_2"/>
        </edge>
        <edge id="4o">
            <lane id="4o_0"/>
            <lane id="4o_1"/>
            <lane id="4o_2">
                <vehicle id="veC.0" pos="29.78" speed="12.03" posLat="0.00" speedLat="0.00"/>
            </lane>
        </edge>
    </timestep>
    <timestep time="30.00">
        <edge id="1si">
            <lane id="1si_0"/>
            <lane id="1si_1"/>
            <lane id="1si_2">
                <vehicle id="arC.0" pos="25.40" speed="0.00" posLat="0.00" speedLat="0.00"/>
            </lane>
        </edge>
        <edge id="2o">
            <lane id="2o_0"/>
            <lane id="2o_1"/>
            <lane id="2o_2">
                <vehicle id="alC.0" pos="77.70" speed="11.78" posLat="0.00" speedLat="0.00"/>
            </lane>
        </edge>
        <edge id="2si">
            <lane id="2si_0"/>
            <lane id="2si_1">
                <vehicle id="hoC.0" pos="25.40" speed="0.00" posLat="-0.80" speedLat="-1.00"/>
            </lane>
            <lane id="2si_2"/>
        </edge>
        <edge id="4o">
            <lane id="4o_0"/>
            <lane id="4o_1"/>
            <lane id="4o_2">
                <vehicle id="veC.0" pos="41.81" speed="12.03" posLat="0.00" speedLat="0.00"/>
            </lane>
        </edge>
    </timestep>
    <timestep time="31.00">
        <edge id="1si">
            <lane id="1si_0"/>
            <lane id="1si_1"/>
            <lane id="1si_2">